Generated by pymatgen.io.lammps.data.LammpsData

144  atoms

  2  atom types

0.000000 12.741439  xlo xhi
0.000000 13.423057  ylo yhi
0.000000 10.083959  zlo zhi
0.000495 0.000523 0.000717  xy xz yz

Masses

1  58.6934
2  95.9400

Atoms

1    1 0.0000  3.235025  3.762591  0.016155
2    1 0.0000  3.097709  3.779640  5.122076
3    1 0.0000  3.257320  8.267195 10.014642
4    1 0.0000  3.199405  8.168077  5.088971
5    1 0.0000  3.306845 12.753675  0.178506
6    1 0.0000  3.084862 12.705837  5.100739
7    1 0.0000  7.563823  3.706928 10.045640
8    1 0.0000  7.323131  3.746489  4.991782
9    1 0.0000  7.618638  8.228981 10.037805
10   1 0.0000  7.312049  8.235901  5.048302
11   1 0.0000  7.444002 12.646631 10.054685
12   1 0.0000  7.454218 12.649756  5.107455
13   1 0.0000 11.705030  3.733501  9.976605
14   1 0.0000 11.611751  3.795069  5.028336
15   1 0.0000 11.690241  8.297233  0.169219
16   1 0.0000 11.710244  8.289367  5.073088
17   1 0.0000 11.717309 12.764713  0.046951
18   1 0.0000 11.704699 12.684560  5.077969
19   1 0.0000  1.021497  0.801248  4.890861
20   1 0.0000  1.129445  0.787252  0.037694
21   1 0.0000  1.114652  5.223360  4.979298
22   1 0.0000  1.131113  5.266915  0.035395
23   1 0.0000  1.162112  9.596408  5.044954
24   1 0.0000  0.986972  9.747254  0.097351
25   1 0.0000  5.257570  0.759255  4.991832
26   1 0.0000  5.374063  0.666113  0.102514
27   1 0.0000  5.225217  5.245505  4.940787
28   1 0.0000  5.387348  5.249088 10.028457
29   1 0.0000  5.326743  9.670369  5.037351
30   1 0.0000  5.423326  9.539097  0.016386
31   1 0.0000  9.524790  0.646704  5.016265
32   1 0.0000  9.589289  0.667444  9.943963
33   1 0.0000  9.474811  5.191126  5.091845
34   1 0.0000  9.642437  5.141046 10.019371
35   1 0.0000  9.547264  9.644484  4.959795
36   1 0.0000  9.591870  9.639046  0.028739
37   1 0.0000  3.251524  1.685338  1.217366
38   1 0.0000  3.091973  1.486348  6.213171
39   1 0.0000  3.293588  5.905107  1.255463
40   1 0.0000  3.250987  5.933477  6.262421
41   1 0.0000  3.230710 10.393363  1.282468
42   1 0.0000  3.208391 10.548844  6.398050
43   1 0.0000  7.441474  1.414114  1.243513
44   1 0.0000  7.257456  1.462121  6.248344
45   1 0.0000  7.386947  6.021675  1.286017
46   1 0.0000  7.460905  6.019456  6.325042
47   1 0.0000  7.505680 10.394047  1.279624
48   1 0.0000  7.429071 10.369170  6.315815
49   1 0.0000 11.485706  1.580766  1.319466
50   1 0.0000 11.611230  1.444228  6.235870
51   1 0.0000 11.715019  5.920827  1.286027
52   1 0.0000 11.669575  5.985007  6.248293
53   1 0.0000 11.750738 10.450281  1.343153
54   1 0.0000 11.707776 10.448043  6.297180
55   1 0.0000  0.972617  2.975865  3.770634
56   1 0.0000  1.098207  3.100385  8.790066
57   1 0.0000  0.917265  7.520922  3.918243
58   1 0.0000  1.027873  7.534733  8.807491
59   1 0.0000  1.128226 11.908465  3.760449
60   1 0.0000  1.007556 12.013761  8.926774
61   1 0.0000  5.284662  2.966063  3.731256
62   1 0.0000  5.380860  3.006241  8.864244
63   1 0.0000  5.260282  7.389426  3.672911
64   1 0.0000  5.368761  7.384650  8.804355
65   1 0.0000  5.240271 11.880400  3.784348
66   1 0.0000  5.377401 11.896113  8.813390
67   1 0.0000  9.307982  2.994380  3.843642
68   1 0.0000  9.505176  2.943247  8.682874
69   1 0.0000  9.550125  7.357675  3.777713
70   1 0.0000  9.587965  7.432908  8.840274
71   1 0.0000  9.482850 11.818735  3.803347
72   1 0.0000  9.613838 11.839441  8.814147
73   1 0.0000  0.993631  0.655346  2.532526
74   1 0.0000  1.118143  0.948741  7.540754
75   1 0.0000  1.029428  5.239982  2.588139
76   1 0.0000  1.158779  5.168427  7.548388
77   1 0.0000  0.986300  9.682455  2.653160
78   1 0.0000  1.054165  9.695240  7.646656
79   1 0.0000  5.357313  0.747540  2.593060
80   1 0.0000  5.298041  0.680565  7.584388
81   1 0.0000  5.263605  5.161974  2.498664
82   1 0.0000  5.280466  5.190691  7.476449
83   1 0.0000  5.281763  9.612380  2.569413
84   1 0.0000  5.370279  9.639539  7.721257
85   1 0.0000  9.600133  0.741912  2.542761
86   1 0.0000  9.439933  0.641538  7.493168
87   1 0.0000  9.545788  5.229801  2.501467
88   1 0.0000  9.714999  5.215674  7.507568
89   1 0.0000  9.517704  9.640270  2.516281
90   1 0.0000  9.559819  9.568667  7.559954
91   1 0.0000  3.213468  3.674221  2.560751
92   1 0.0000  3.174911  3.733751  7.648905
93   1 0.0000  3.169549  8.161079  2.565702
94   1 0.0000  3.263350  8.394605  7.535561
95   1 0.0000  3.204740 12.756632  2.488852
96   1 0.0000  3.127474 12.737399  7.621910
97   1 0.0000  7.406400  3.818061  2.543981
98   1 0.0000  7.484989  3.747111  7.505662
99   1 0.0000  7.486291  8.106818  2.489891
100  1 0.0000  7.537772  8.168501  7.455020
101  1 0.0000  7.409013 12.650438  2.428358
102  1 0.0000  7.373707 12.669341  7.572529
103  1 0.0000 11.571266  3.763828  2.494076
104  1 0.0000 11.718126  3.692774  7.507941
105  1 0.0000 11.610060  8.140202  2.505128
106  1 0.0000 11.722379  8.286662  7.621981
107  1 0.0000 11.645865 12.662323  2.513497
108  1 0.0000 11.715615 12.645456  7.495266
109  2 0.0000  3.214458  1.556684  3.751102
110  2 0.0000  3.189139  1.596979  8.836533
111  2 0.0000  3.170817  5.972817  3.761841
112  2 0.0000  3.165211  6.065503  8.859756
113  2 0.0000  3.218880 10.470000  3.800533
114  2 0.0000  3.154282 10.555064  8.921924
115  2 0.0000  7.421894  1.429341  3.771007
116  2 0.0000  7.469413  1.468126  8.768365
117  2 0.0000  7.383561  6.016847  3.804163
118  2 0.0000  7.508138  5.960117  8.841030
119  2 0.0000  7.396862 10.472980  3.808268
120  2 0.0000  7.506873 10.375402  8.813037
121  2 0.0000 11.562725  1.489866  3.786153
122  2 0.0000 11.657155  1.520058  8.734332
123  2 0.0000 11.588700  5.915231  3.749670
124  2 0.0000 11.823241  5.976047  8.788977
125  2 0.0000 11.698007 10.480115  3.906072
126  2 0.0000 11.760152 10.529489  8.866603
127  2 0.0000  1.041366  2.968436  1.233530
128  2 0.0000  1.015179  3.126727  6.230828
129  2 0.0000  1.153909  7.535723  1.398968
130  2 0.0000  1.091551  7.517910  6.297634
131  2 0.0000  1.107191 11.980344  1.279503
132  2 0.0000  1.011319 11.968381  6.337294
133  2 0.0000  5.345525  2.984368  1.215077
134  2 0.0000  5.194711  2.976605  6.245571
135  2 0.0000  5.322194  7.400434  1.236979
136  2 0.0000  5.286617  7.424756  6.319879
137  2 0.0000  5.333040 11.870304  1.315533
138  2 0.0000  5.242658 11.917975  6.302212
139  2 0.0000  9.570588  2.960665  1.252176
140  2 0.0000  9.480737  2.849907  6.287066
141  2 0.0000  9.566189  7.379830  1.246438
142  2 0.0000  9.584618  7.425582  6.230949
143  2 0.0000  9.546733 11.925386  1.220693
144  2 0.0000  9.506716 11.864037  6.239853

